% Model:              HH-radius-beading-Geo1-Na-conserving2.mph
% Version:            COMSOL 6.1.0.282
% Date:               Jun 15 2023, 11:24
% Dimension:          1
% Nodes:              3003
% Expressions:        1
% Description:        Point graph
% Time (ms)               Dependent variable V_m
0                         -5.7362231518466325E-8
0.01                      -0.0034711273915360454
0.02                      -0.006889268945051296
0.030000000000000002      -0.010235731774495587
0.04                      -0.013503938885083262
0.05                      -0.016692845655831987
0.060000000000000005      -0.019803264569728023
0.07                      -0.022843715338153475
0.08                      -0.02581733680214383
0.09                      -0.028719943840318427
0.1                       -0.03155153645267726
0.11                      -0.034312114639220334
0.12000000000000001       -0.0370041276445603
0.13                      -0.039651980441801904
0.14                      -0.04223756611541581
0.15                      -0.04476088466540203
0.16                      -0.047221936091760584
0.17                      -0.04962072039449144
0.18                      -0.05197705851180214
0.19                      -0.0542930083553099
0.2                       -0.05655752218896457
0.21000000000000002       -0.05877060001276619
0.22                      -0.06093224182671472
0.23                      -0.06304509907529483
0.24000000000000002       -0.06513559150890721
0.25                      -0.06718411737725455
0.26                      -0.06919067668033686
0.27                      -0.07115526941815417
0.28                      -0.07307789559070645
0.29                      -0.07496695554343266
0.3                       -0.07682556913328782
0.31                      -0.07865064499516129
0.32                      -0.08044337028923373
0.33                      -0.08220493217568597
0.34                      -0.08393664305478798
0.35000000000000003       -0.08564108428937432
0.36                      -0.08731872145845508
0.37                      -0.0889708626103281
0.38                      -0.09059881579329114
0.39000000000000007       -0.09220388905564202
0.4                       -0.09378509664827929
0.41000000000000003       -0.09534289471170468
0.42000000000000004       -0.09687943542203217
0.43                      -0.0983957026617315
0.44                      -0.09989268031327246
0.45000000000000007       -0.10137121357954806
0.46                      -0.10283074252878276
0.47000000000000003       -0.10427305005733951
0.48000000000000004       -0.10569898618709275
0.49                      -0.0018976869370481984
0.5                       0.16372085627851293
0.51                      0.3795913891981701
0.52                      0.6434622342697007
0.5300000000000001        0.901556299512089
0.54                      1.167867283743148
0.55                      1.4319510645355211
0.56                      1.6899893366005925
0.5700000000000001        1.9417139102967047
0.58                      2.1840737374247383
0.5900000000000001        2.4223551702279864
0.6                       2.6537775200306797
0.61                      2.8791151923172538
0.62                      3.098826006990916
0.63                      3.312852542216652
0.64                      3.521068838601544
0.6500000000000001        3.723566070648647
0.66                      3.92034423835796
0.67                      4.113249683700064
0.68                      4.302115235349125
0.6900000000000001        4.48642660610878
0.7000000000000001        4.666183795979032
0.71                      4.8413868049598765
0.72                      5.012596563374486
0.73                      5.181604684261176
0.74                      5.346894877116952
0.75                      5.508467141941817
0.76                      5.666321478735769
0.77                      5.820457887498808
0.7800000000000001        5.973264776088059
0.79                      6.1241245844441
0.8                       6.272310464442554
0.81                      6.417822416083417
0.8200000000000001        6.560660439366689
0.8300000000000001        6.7013836918812695
0.8400000000000001        6.8417781245471945
0.85                      6.980332238865094
0.86                      7.117046034834975
0.87                      7.251919512456832
0.88                      7.384952671730664
0.89                      7.517108661106582
0.9000000000000001        7.6483634662796804
0.91                      7.778556595266129
0.92                      7.907795685083738
0.93                      8.036188372750315
0.9400000000000001        8.16378073506864
0.9500000000000001        8.290449843467798
0.9600000000000001        8.416430421304607
0.97                      8.541805597075747
0.98                      8.66665849927789
0.99                      8.791072256407709
1                         8.914987949701658
1.01                      9.038492249339122
1.02                      9.16169195352894
1.03                      9.284654316222728
1.04                      9.407446591372086
1.05                      9.53012602573535
1.0600000000000003        9.652722392654182
1.07                      9.775323605162612
1.08                      9.897992933121099
1.09                      10.020793646390105
1.1                       10.143789014830089
1.11                      10.26705244516902
1.12                      10.390646954523532
1.1300000000000001        10.514634123620931
1.1400000000000001        10.63907835517112
1.1500000000000001        10.764044051884012
1.16                      10.88960158613028
1.17                      11.015840125526342
1.1800000000000002        11.142815354529546
1.19                      11.270597347778654
1.2                       11.399256748016397
1.21                      11.528864766089479
1.22                      11.659502214980996
1.23                      11.791242776027103
1.24                      11.924159217712482
1.25                      12.058327479989869
1.26                      12.193824305244364
1.27                      12.330734988174031
1.28                      12.4691700261082
1.29                      12.609197250595798
1.3000000000000003        12.750903977113078
1.3100000000000003        12.894379061087609
1.32                      13.039712897898298
1.33                      13.187037920708034
1.34                      13.336453586126106
1.35                      13.488054251874244
1.36                      13.64194748600675
1.37                      13.798243446978441
1.3800000000000001        13.957068541271063
1.3900000000000001        14.118594766274624
1.4000000000000001        14.282920105681955
1.41                      14.450178056013462
1.42                      14.62050600392088
1.4300000000000002        14.794045226187226
1.44                      14.971005738292204
1.45                      15.151546175090866
1.46                      15.335818430897511
1.47                      15.52399697776227
1.48                      15.716261859934951
1.49                      15.906385562239667
1.5                       16.065892753480757
1.51                      16.20073354660981
1.52                      16.301003520225855
1.53                      16.354987509307634
1.54                      16.349022358655315
1.5500000000000003        16.351312100764208
1.5600000000000003        16.359616261983476
1.57                      16.35585049094505
1.58                      16.344472431662172
1.59                      16.330744004661568
1.6                       16.31979302035968
1.61                      16.31156864936606
1.62                      16.310578270280107
1.6300000000000001        16.320262133276376
1.6400000000000001        16.344060488529408
1.6500000000000001        16.385413586213755
1.6600000000000001        16.429693329294455
1.6700000000000002        16.48079046838445
1.6800000000000002        16.545156030333253
1.69                      16.62421103036768
1.7                       16.719376483714562
1.71                      16.827812783558702
1.72                      16.93536452855011
1.73                      17.05269004822808
1.74                      17.17978934259261
1.75                      17.31666241164371
1.76                      17.463309255381365
1.77                      17.6160289822735
1.78                      17.775778515480294
1.79                      17.943684122469264
1.8000000000000003        18.11974580324042
1.8100000000000003        18.303963557793747
1.82                      18.496349881214062
1.83                      18.696944682837557
1.84                      18.90571418631512
1.85                      19.12265839164676
1.86                      19.347777298832455
1.87                      19.581070907872224
1.8800000000000001        19.82590253262351
1.8900000000000001        20.08140253589287
1.9000000000000001        20.346547382959596
1.9100000000000001        20.621337073823682
1.9200000000000002        20.905771608485125
1.9300000000000002        21.201369112550754
1.94                      21.513815523345247
1.95                      21.839976787072988
1.96                      22.18045730405165
1.97                      22.53586147459893
1.98                      22.90679369903252
1.99                      23.29500797953378
2                         23.701080053248397
2.0100000000000002        24.125422759282827
2.02                      24.568768972144028
2.0300000000000002        25.031851566338954
2.04                      25.516223226710334
2.05                      26.02568731822143
2.06                      26.559284279863423
2.07                      27.11807337127571
2.08                      27.70311385209788
2.09                      28.315464981969313
2.1                       28.960786033287068
2.11                      29.64002157297734
2.1200000000000006        30.353464348338903
2.13                      31.102687695169386
2.14                      31.889264949266657
2.15                      32.716439814511055
2.16                      33.59204176794718
2.17                      34.51419579867092
2.18                      35.485140253988455
2.19                      36.50711348120599
2.2                       37.58235382762972
2.21                      38.71796157192422
2.22                      39.91689314438858
2.2300000000000004        41.18130795541235
2.24                      42.514766492646764
2.2500000000000004        43.920955354489024
2.2600000000000002        45.4018697957081
2.27                      46.95390899711869
2.2800000000000002        48.58379214842224
2.29                      50.293983480669446
2.3000000000000003        52.0869003772443
2.31                      53.96491337386288
2.32                      55.91003444391778
2.33                      57.92154048892344
2.34                      60.00199127674099
2.35                      62.14804644016608
2.3600000000000003        64.35579191084027
2.37                      66.61219794096658
2.38                      68.87676699382966
2.39                      71.1563388315738
2.4                       73.43658862708965
2.41                      75.70180495302233
2.42                      77.93488978177018
2.43                      80.13229687674318
2.44                      82.27636133566986
2.45                      84.34558279479475
2.46                      86.32137913088206
2.47                      88.1841690984973
2.48                      89.92802809990847
2.4900000000000007        91.59217553904641
2.5                       93.1326291248185
2.5100000000000002        94.53973594841008
2.52                      95.8042386981154
2.5300000000000002        96.91727565933802
2.54                      97.89692021417292
2.5500000000000003        98.74269619523689
2.56                      99.4504793226545
2.57                      100.02512230104145
2.58                      100.47395277794924
2.59                      100.80750036200794
2.6000000000000005        101.04106978116023
2.61                      101.18980552490169
2.6200000000000006        101.27335617076609
2.63                      101.3147652729816
2.64                      101.34063508289857
2.65                      101.23806470536267
2.66                      101.00028054632402
2.67                      100.64638153438028
2.68                      100.15336905325992
2.69                      99.49140019234541
2.7                       98.7181758963067
2.71                      98.19229602244498
2.72                      97.73786075164809
2.7300000000000004        97.40052362567567
2.74                      97.23061287709828
2.75                      97.2831314292972
2.7600000000000002        97.20317224176488
2.77                      97.03431299407926
2.7800000000000002        96.88755907274293
2.79                      96.76141167816027
2.8000000000000003        96.65437201073564
2.81                      96.54880175414957
2.82                      96.38275369786435
2.83                      96.18804783581565
2.84                      95.95675985987849
2.85                      95.68096546192783
2.8600000000000003        95.35274033383864
2.87                      95.02167990281859
2.88                      94.67842571374052
2.89                      94.30546879224059
2.9                       93.90131296988045
2.91                      93.4644620782215
2.92                      93.00332135872847
2.93                      92.55347905540015
2.94                      92.09299829900931
2.95                      91.62432489750202
2.96                      91.14990465882462
2.9700000000000006        90.67218339092315
2.98                      90.18731955201206
2.9900000000000007        89.69791571334167
3                         89.20746536063974
3.0100000000000002        88.71771165671507
3.02                      88.23039776437648
3.0300000000000002        87.74474838430388
3.04                      87.25205893671458
3.0500000000000003        86.75775061399119
3.06                      86.26117372304356
3.0700000000000003        85.76143890082331
3.08                      85.25741711432399
3.09                      84.75289287557105
3.1000000000000005        84.24701891577298
3.11                      83.73786352593514
3.1200000000000006        83.22474034443925
3.13                      82.70685700588791
3.14                      82.18490856967345
3.15                      81.66450093953888
3.16                      81.14219665297172
3.17                      80.61829328708566
3.18                      80.09313405416744
3.19                      79.56710780167673
3.2                       79.04048361918413
3.21                      78.51371719676573
3.22                      77.98733697267429
3.2300000000000004        77.46186935852357
3.24                      76.9378821110681
3.2500000000000004        76.4150241787166
3.2600000000000002        75.89017475447592
3.27                      75.3657453835166
3.2800000000000002        74.84184712289536
3.29                      74.31859102966922
3.3000000000000003        73.79608816089493
3.31                      73.27378445764906
3.3200000000000003        72.75180756041121
3.33                      72.23037935628028
3.3400000000000003        71.70953657202618
3.35                      71.18931593441887
3.3600000000000003        70.66979010002173
3.37                      70.15113036586176
3.38                      69.63329928440827
3.39                      69.11634788689871
3.4                       68.60032720457069
3.41                      68.08528826866173
3.42                      67.57134828388342
3.43                      67.05855663156146
3.44                      66.54695331627174
3.45                      66.03659676449328
3.46                      65.5275454027052
3.4700000000000006        65.0198105943302
3.48                      64.51327449743653
3.4900000000000007        64.00809269657061
3.5                       63.50430488133896
3.5100000000000002        63.0019507413479
3.52                      62.501069966203886
3.5300000000000002        62.0015973268725
3.54                      61.503557017000674
3.5500000000000003        61.00699042962364
3.56                      60.511908723058916
3.5700000000000003        60.01832033420187
3.58                      59.52624148397231
3.59                      59.03571874785984
3.6000000000000005        58.546737056057204
3.61                      58.0593039412671
3.6200000000000006        57.5734252145228
3.63                      57.08910496518843
3.64                      56.60635023134312
3.65                      56.12516234880488
3.66                      55.64554016610298
3.67                      55.16748215597601
3.68                      54.69098519063562
3.69                      54.216031425546596
3.7                       53.74257218621658
3.7100000000000004        53.27063677896289
3.72                      52.8002197358357
3.7300000000000004        52.33131558888516
3.74                      51.86391887016147
3.75                      51.39799044215806
3.7600000000000002        50.93352567641245
3.77                      50.47052471542255
3.7800000000000002        50.00897832848446
3.79                      49.548877284894424
3.8000000000000003        49.09020165550477
3.81                      48.63290214001507
3.8200000000000003        48.17699159383745
3.83                      47.72245652697449
3.8400000000000003        47.26928344942861
3.85                      46.81745887120233
3.8600000000000003        46.36690175134526
3.87                      45.917600284116524
3.88                      45.46955223571329
3.89                      45.022736566955786
3.9                       44.577132238664426
3.91                      44.132695342709226
3.92                      43.68931918730249
3.93                      43.247029944456926
3.94                      42.805797470343926
3.95                      42.36559162113471
3.96                      41.92638225300072
3.9700000000000006        41.488054956474244
3.98                      41.05058168873277
3.9900000000000007        40.61394634735469
4                         40.17810937137322
4.01                      39.743031199821395
4.0200000000000005        39.30864544768037
4.03                      38.87481208806836
4.04                      38.4415469362149
4.05                      38.00879975188816
4.0600000000000005        37.5765202948563
4.07                      37.14465832488758
4.08                      36.71304648181412
4.09                      36.28163744557058
4.1                       35.85040049193113
4.110000000000001         35.419272291881356
4.12                      34.98818951640702
4.13                      34.556857380253966
4.14                      34.12456098748798
4.15                      33.69196427984717
4.16                      33.25906725733157
4.17                      32.82586991994123
4.18                      32.39237226767611
4.19                      31.957454947427465
4.2                       31.52140738537948
4.21                      31.084570226747037
4.22                      30.64694347153009
4.23                      30.20852711972861
4.240000000000001         29.768923663101777
4.25                      29.326863459204255
4.26                      28.88342104072857
4.2700000000000005        28.43859640767469
4.28                      27.992389560042685
4.29                      27.54480049783248
4.3                       27.09427022358925
4.3100000000000005        26.641201840391787
4.32                      26.18606978746657
4.33                      25.728874064813528
4.34                      25.26961467243274
4.3500000000000005        24.808054312918934
4.36                      24.34330422043671
4.370000000000001         23.8758542772659
4.38                      23.405610009914778
4.39                      22.93247694489149
4.4                       22.456360608704177
4.41                      21.97670719250119
4.42                      21.49343367545854
4.43                      21.00652212435529
4.44                      20.515826732503374
4.45                      20.021201693214913
4.460000000000001         19.522610728436003
4.47                      19.02031825639432
4.48                      18.513952356943253
4.49                      18.00341082923421
4.500000000000001         17.488591472418467
4.51                      16.969392085647435
4.5200000000000005        16.446313287652536
4.53                      15.919237847406603
4.54                      15.387963114633543
4.55                      14.85245425681388
4.5600000000000005        14.312676441428236
4.57                      13.76892146114288
4.58                      13.222377814581531
4.590000000000001         12.672336376598233
4.6000000000000005        12.118892351585615
4.61                      11.56214094393631
4.62                      11.002177358042857
4.63                      10.440806856868328
4.64                      9.87808200769366
4.65                      9.313813063310947
4.66                      8.748286336352452
4.67                      8.181788139450333
4.68                      7.615176419569502
4.69                      7.050878469623336
4.7                       6.488000507038456
4.71                      5.927056425070623
4.720000000000001         5.368560116975599
4.73                      4.813025476009248
4.74                      4.261771010264946
4.75                      3.7154294505936183
4.76                      3.1745016267564306
4.7700000000000005        2.6397202367721584
4.78                      2.111838849085602
4.79                      1.5917553812873335
4.8                       1.080777389361684
4.8100000000000005        0.5795407213988161
4.82                      0.08899974786705873
4.83                      -0.3898585394623646
4.84                      -0.8560145275149892
4.850000000000001         -1.3110200187592946
4.86                      -1.7541747607582843
4.87                      -2.184318998136177
4.88                      -2.601010767279186
4.89                      -3.0038430278334505
4.9                       -3.3925954525326243
4.91                      -3.7673514305169857
4.92                      -4.127273681103244
4.93                      -4.471952716568775
4.94                      -4.8009790491910165
4.95                      -5.113943191247231
4.96                      -5.414620912293014
4.97                      -5.702498373044621
4.980000000000001         -5.9764686852455
4.99                      -6.236590086176407
5                         -6.482920813118243
5.01                      -6.716725464919696
5.0200000000000005        -6.941834747747201
5.03                      -7.154952461627506
5.04                      -7.356078606560595
5.05                      -7.545213182546488
5.0600000000000005        -7.722356189585199
5.07                      -7.892814067720027
5.08                      -8.055214754211065
5.09                      -8.207943375794057
5.1000000000000005        -8.350999932469014
5.110000000000001         -8.484384424235921
5.12                      -8.609710220823537
5.13                      -8.732130429707638
5.14                      -8.847283836854116
5.15                      -8.95517044226298
5.16                      -9.055790245934228
5.17                      -9.149143247867839
5.18                      -9.239814436663156
5.19                      -9.326618292090307
5.200000000000001         -9.408159495358229
5.21                      -9.484438046466918
5.22                      -9.55545394541638
5.23                      -9.621794707076864
5.240000000000001         -9.685660790168376
5.25                      -9.74583931533439
5.26                      -9.802564185601536
5.2700000000000005        -9.856069303996444
5.28                      -9.906588573545724
5.29                      -9.95439566964244
5.3                       -9.99972350366365
5.3100000000000005        -10.042799351260959
5.32                      -10.083861560236768
5.330000000000001         -10.1231484783935
5.34                      -10.160690948082786
5.3500000000000005        -10.195950133070138
5.36                      -10.229592760234569
5.370000000000001         -10.26177456474104
5.38                      -10.292651281754504
5.39                      -10.322378646439915
5.4                       -10.350607697210506
5.41                      -10.377506752900628
5.42                      -10.403315647635175
5.43                      -10.428133714003517
5.44                      -10.452060284595037
5.45                      -10.475083808958908
5.460000000000001         -10.496888322021341
5.47                      -10.517802065897666
5.48                      -10.537880228118095
5.49                      -10.557177996212848
5.5                       -10.57575055771215
5.51                      -10.59353859935958
5.5200000000000005        -10.610580397490716
5.53                      -10.626932998637553
5.54                      -10.64262045329888
5.55                      -10.657663842005663
5.5600000000000005        -10.672082210386378
5.57                      -10.685894578118537
5.58                      -10.699111750235282
5.590000000000001         -10.711743815826038
5.6000000000000005        -10.723797982998097
5.61                      -10.735278578876615
5.62                      -10.746279620060037
5.63                      -10.756813343903458
5.64                      -10.766873931638406
5.65                      -10.776479359818532
5.66                      -10.785647125145347
5.67                      -10.794385561336284
5.68                      -10.802675183752068
5.69                      -10.810544730616327
5.7                       -10.81800152915414
5.71                      -10.82505160040644
5.720000000000001         -10.83169965923002
5.73                      -10.837985771680593
5.74                      -10.843917454359149
5.75                      -10.849494908411325
5.76                      -10.854727592466013
5.7700000000000005        -10.859624609802037
5.78                      -10.864193388316252
5.79                      -10.868436844486217
5.8                       -10.872364943350389
5.8100000000000005        -10.875984112590862
5.82                      -10.879300298918533
5.83                      -10.882318968073118
5.84                      -10.885102192041604
5.850000000000001         -10.887656252270865
5.86                      -10.889978447775746
5.87                      -10.892081670438907
5.88                      -10.893978812142977
5.89                      -10.895675003323593
5.9                       -10.897154066396983
5.91                      -10.898444916157466
5.92                      -10.89955735447918
5.93                      -10.90050118323626
5.940000000000001         -10.901286204302833
5.95                      -10.901886425258029
5.96                      -10.90231254043976
5.97                      -10.902580316220591
5.980000000000001         -10.902695554269737
5.99                      -10.902664056256404
6                         -10.902484442937435
6.01                      -10.90213562083085
6.0200000000000005        -10.901638216048314
6.03                      -10.900995171374571
6.04                      -10.90020942959436
6.05                      -10.899283933492425
6.0600000000000005        -10.898218496199066
6.070000000000001         -10.897016138531106
6.08                      -10.89568032477591
6.09                      -10.894213647962514
6.1000000000000005        -10.892618701119948
6.110000000000001         -10.89089969354998
6.12                      -10.889065271815971
6.13                      -10.887114692275938
6.140000000000001         -10.885051191433833
6.15                      -10.882878005793613
6.16                      -10.880598371859225
6.17                      -10.878220156687437
6.18                      -10.875746481328022
6.19                      -10.873179810683629
6.200000000000001         -10.870523898747377
6.21                      -10.867782499512398
6.22                      -10.864959120728669
6.23                      -10.86205659411841
6.240000000000001         -10.859079182024821
6.25                      -10.85603054040603
6.26                      -10.852914325220171
6.2700000000000005        -10.849734192425371
6.28                      -10.846486732996125
6.29                      -10.843174559427741
6.3                       -10.839801442383392
6.3100000000000005        -10.836369116588832
6.32                      -10.832879133515421
6.330000000000001         -10.829331939334212
6.34                      -10.825724893936096
6.3500000000000005        -10.82206034560971
6.36                      -10.818338236749169
6.370000000000001         -10.814558238747491
6.38                      -10.810719751996595
6.390000000000001         -10.806826611909338
6.4                       -10.802878371931413
6.41                      -10.798873543045856
6.42                      -10.794811721383
6.43                      -10.790692354138805
6.44                      -10.786518301206288
6.45                      -10.782303487202746
6.460000000000001         -10.778041711018975
6.47                      -10.77373520811139
6.48                      -10.7693864039454
6.49                      -10.764997913995407
6.500000000000001         -10.760576234471122
6.51                      -10.75612490596679
6.5200000000000005        -10.751647054062216
6.53                      -10.74714705791381
6.54                      -10.742629582418534
6.550000000000001         -10.738095531436514
6.5600000000000005        -10.733533353446617
6.57                      -10.728954480589552
6.58                      -10.724360875776776
6.590000000000001         -10.719754402547933
6.6000000000000005        -10.7151368250708
6.61                      -10.710483190454223